
FAST Summary File

Predictions were generated on 07-May-2025 at 19:12:48 using OpenFAST, compiled on Feb 14 2025 at 23:37:45 as a 64-bit application using single precision at commit v4.0.2
  run with
    NWTC Subroutine Library
    ElastoDyn [not called]
    InflowWind
    ElastoDyn
    AeroDyn
    SeaState
    HydroDyn
    MoorDyn (v2.2.2, 2024-01-16)
    Simplified-ElastoDyn (unknown version, unknown date) [not called]
    InflowWind
    AeroDyn
    AeroDisk (unknown version, unknown date) [not called]
    ServoDyn (unknown version, unknown date) [not called]
    HydroDyn
    SubDyn (unknown version, unknown date) [not called]
    ExtPtfm_MCKF (unknown version, unknown date) [not called]
    MAP (unknown version, unknown date) [not called]
    FEAMooring (unknown version, unknown date) [not called]
    MoorDyn (v2.2.2, 2024-01-16)
    OrcaFlexInterface (unknown version, unknown date) [not called]
    IceFloe (unknown version, unknown date) [not called]
    IceDyn (unknown version, unknown date) [not called]
Description from the FAST input file: 
  Floating MHK turbine, based on the RM1 tidal current rotor

Interpolation order for input/output time histories: 2 (quadratic)
Number of correction iterations:  5
Number of rows in Jacobian matrix used for coupling ElastoDyn to HydroDyn:     12


   Requested Time Steps  
  -------------------------------------------------
  Component          Time Step (s)    Subcycles (-)
  -----------------  ---------------  -------------
  FAST (glue code)    1.000E-02
  InflowWind          1.000E-02              1
  ElastoDyn           1.000E-02              1
  AeroDyn             1.000E-02              1
  SeaState            1.000E-02              1
  HydroDyn            1.000E-02              1
  MoorDyn             1.000E-02              1
  FAST output files   1.000E-01             10^-1


   Requested Channels in FAST Output File(s)  
  --------------------------------------------
  Number  Name                  Units                 Generated by
  ------  --------------------  --------------------  ------------
       1  Time                  (s)                   OpenFAST
       2  PtfmSurge             (m)                   ElastoDyn
       3  PtfmSway              (m)                   ElastoDyn
       4  PtfmHeave             (m)                   ElastoDyn
       5  PtfmRoll              (deg)                 ElastoDyn
       6  PtfmPitch             (deg)                 ElastoDyn
       7  PtfmYaw               (deg)                 ElastoDyn
       8  TwrTpTDxi             (m)                   ElastoDyn
       9  TwrTpTDyi             (m)                   ElastoDyn
      10  TwrTpTDzi             (m)                   ElastoDyn
      11  OoPDefl1              (m)                   ElastoDyn
      12  TwN1Fbx               (N/m)                 AeroDyn
      13  TwN3Fby               (N/m)                 AeroDyn
      14  TwN4Fbz               (N/m)                 AeroDyn
      15  TwN1Mbx               (N-m/m)               AeroDyn
      16  TwN2Mby               (N-m/m)               AeroDyn
      17  TwN3Mbz               (N-m/m)               AeroDyn
      18  B2N4Fbn               (N/m)                 AeroDyn
      19  B1N7Fbt               (N/m)                 AeroDyn
      20  B2N8Fbs               (N/m)                 AeroDyn
      21  B1N2Mbn               (N-m/m)               AeroDyn
      22  B2N3Mbt               (N-m/m)               AeroDyn
      23  B1N6Mbs               (N-m/m)               AeroDyn
      24  B1FldFz               (N)                   AeroDyn
      25  B2FldMx               (N-m)                 AeroDyn
      26  HbFbx                 (N)                   AeroDyn
      27  HbFby                 (N)                   AeroDyn
      28  HbFbz                 (N)                   AeroDyn
      29  HbMbx                 (N-m)                 AeroDyn
      30  HbMby                 (N-m)                 AeroDyn
      31  HbMbz                 (N-m)                 AeroDyn
      32  NcFbx                 (N)                   AeroDyn
      33  NcFby                 (N)                   AeroDyn
      34  NcFbz                 (N)                   AeroDyn
      35  NcMbx                 (N-m)                 AeroDyn
      36  NcMby                 (N-m)                 AeroDyn
      37  NcMbz                 (N-m)                 AeroDyn
      38  RtFldFxh              (N)                   AeroDyn
      39  RtFldFyh              (N)                   AeroDyn
      40  RtFldFzg              (N)                   AeroDyn
      41  RtFldMxh              (N-m)                 AeroDyn
      42  RtFldMyg              (N-m)                 AeroDyn
      43  RtFldMzh              (N-m)                 AeroDyn
      44  B1N3SigCr             (-)                   AeroDyn
      45  B2N5SigCr             (-)                   AeroDyn
      46  B1N2SgCav             (-)                   AeroDyn
      47  B2N6SgCav             (-)                   AeroDyn
      48  Wave1Elev             (m)                   SeaState
      49  HydroFxi              (N)                   HydroDyn
      50  HydroFyi              (N)                   HydroDyn
      51  HydroFzi              (N)                   HydroDyn
      52  FAIRTEN1              (N)                   MoorDyn
      53  FAIRTEN2              (N)                   MoorDyn
      54  FAIRTEN3              (N)                   MoorDyn
      55  FAIRTEN4              (N)                   MoorDyn
      56  FAIRTEN5              (N)                   MoorDyn
      57  FAIRTEN6              (N)                   MoorDyn
      58  ANCHTEN1              (N)                   MoorDyn
      59  ANCHTEN2              (N)                   MoorDyn
      60  ANCHTEN3              (N)                   MoorDyn
      61  ANCHTEN4              (N)                   MoorDyn
      62  ANCHTEN5              (N)                   MoorDyn
      63  ANCHTEN6              (N)                   MoorDyn
